 argument  1 = sf6.in11713
                                         
                                         
 
 
             Northwest Computational Chemistry Package (NWChem) 6.1.1
             --------------------------------------------------------
 
 
                    Environmental Molecular Sciences Laboratory
                       Pacific Northwest National Laboratory
                                Richland, WA 99352
 
                              Copyright (c) 1994-2012
                       Pacific Northwest National Laboratory
                            Battelle Memorial Institute
 
             NWChem is an open-source computational chemistry package
                        distributed under the terms of the
                      Educational Community License (ECL) 2.0
             A copy of the license is included with this distribution
                              in the LICENSE.TXT file
 
                                  ACKNOWLEDGMENT
                                  --------------

            This software and its documentation were developed at the
            EMSL at Pacific Northwest National Laboratory, a multiprogram
            national laboratory, operated for the U.S. Department of Energy
            by Battelle under Contract Number DE-AC05-76RL01830. Support
            for this work was provided by the Department of Energy Office
            of Biological and Environmental Research, Office of Basic
            Energy Sciences, and the Office of Advanced Scientific Computing.


           Job information
           ---------------

    hostname      = compute-0-3.local
    program       = /home/fuhr/apps/NWChem/src/6.1.1_64/bin/LINUX64/nwchem
    date          = Wed Feb  3 15:05:37 2016

    compiled      = Mon_Dec_17_14:29:35_2012
    source        = /home/fuhr/apps/NWChem/src/6.1.1_64
    nwchem branch = 6.1.1
    input         = sf6.in11713
    prefix        = sf6.
    data base     = ./sf6.db
    status        = startup
    nproc         =       64
    time left     =     -1s



           Memory information
           ------------------

    heap     =   58982401 doubles =    450.0 Mbytes
    stack    =   58982401 doubles =    450.0 Mbytes
    global   =  117964800 doubles =    900.0 Mbytes (distinct from heap & stack)
    total    =  235929602 doubles =   1800.0 Mbytes
    verify   = yes
    hardfail = no 


           Directory information
           ---------------------
 
  0 permanent = .
  0 scratch   = /state/partition1/11713.1.all.q
 
 
 
 
                                NWChem Input Module
                                -------------------
 
 
                             SF6 in cc-pvtz basis set
                             ------------------------
 OH  symmetry detected

          ------
          auto-z
          ------
  Looking for out-of-plane bends
 
 
                             Geometry "geometry" -> ""
                             -------------------------
 
 Output coordinates in a.u. (scale by  1.000000000 to convert to a.u.)
 
  No.       Tag          Charge          X              Y              Z
 ---- ---------------- ---------- -------------- -------------- --------------
    1 S                   16.0000     0.00000000     0.00000000     0.00000000
    2 F                    9.0000     0.00000000     2.96638659     0.00000000
    3 F                    9.0000     0.00000000    -2.96638659     0.00000000
    4 F                    9.0000     0.00000000     0.00000000     2.96638659
    5 F                    9.0000     0.00000000     0.00000000    -2.96638659
    6 F                    9.0000     2.96638659     0.00000000     0.00000000
    7 F                    9.0000    -2.96638659     0.00000000     0.00000000
 
      Atomic Mass 
      ----------- 
 
      S                 31.972070
      F                 18.998400
 

 Effective nuclear repulsion energy (a.u.)     563.9210334056

            Nuclear Dipole moment (a.u.) 
            ----------------------------
        X                 Y               Z
 ---------------- ---------------- ----------------
     0.0000000000     0.0000000000     0.0000000000
 
      Symmetry information
      --------------------
 
 Group name              Oh       
 Group number             44
 Group order              48
 No. of unique centers     2
 
      Symmetry unique atoms
 
     1    2
 


                                Z-matrix (autoz)
                                -------- 

 Units are Angstrom for bonds and degrees for angles
 
      Type          Name      I     J     K     L     M      Value
      ----------- --------  ----- ----- ----- ----- ----- ----------
    1 Stretch                  1     2                       1.56974
    2 Stretch                  1     3                       1.56974
    3 Stretch                  1     4                       1.56974
    4 Stretch                  1     5                       1.56974
    5 Stretch                  1     6                       1.56974
    6 Stretch                  1     7                       1.56974
    7 Bend                     2     1     4                90.00000
    8 Bend                     2     1     5                90.00000
    9 Bend                     2     1     6                90.00000
   10 Bend                     2     1     7                90.00000
   11 Bend                     3     1     4                90.00000
   12 Bend                     3     1     5                90.00000
   13 Bend                     3     1     6                90.00000
   14 Bend                     3     1     7                90.00000
   15 Bend                     4     1     6                90.00000
   16 Bend                     4     1     7                90.00000
   17 Bend                     5     1     6                90.00000
   18 Bend                     5     1     7                90.00000
 
 
            XYZ format geometry
            -------------------
     7
 geometry
 S                     0.00000000     0.00000000     0.00000000
 F                     0.00000000     1.56974430     0.00000000
 F                     0.00000000    -1.56974430     0.00000000
 F                     0.00000000     0.00000000     1.56974430
 F                     0.00000000     0.00000000    -1.56974430
 F                     1.56974430     0.00000000     0.00000000
 F                    -1.56974430     0.00000000     0.00000000
 
 ==============================================================================
                                internuclear distances
 ------------------------------------------------------------------------------
       center one      |      center two      | atomic units |       a.u.
 ------------------------------------------------------------------------------
    2 F                |   1 S                |     2.96639  |     2.96639
    3 F                |   1 S                |     2.96639  |     2.96639
    4 F                |   1 S                |     2.96639  |     2.96639
    5 F                |   1 S                |     2.96639  |     2.96639
    6 F                |   1 S                |     2.96639  |     2.96639
    7 F                |   1 S                |     2.96639  |     2.96639
 ------------------------------------------------------------------------------
                         number of included internuclear distances:          6
 ==============================================================================



 ==============================================================================
                                 internuclear angles
 ------------------------------------------------------------------------------
        center 1       |       center 2       |       center 3       |  degrees
 ------------------------------------------------------------------------------
    2 F                |   1 S                |   3 F                |   180.00
    2 F                |   1 S                |   4 F                |    90.00
    2 F                |   1 S                |   5 F                |    90.00
    2 F                |   1 S                |   6 F                |    90.00
    2 F                |   1 S                |   7 F                |    90.00
    3 F                |   1 S                |   4 F                |    90.00
    3 F                |   1 S                |   5 F                |    90.00
    3 F                |   1 S                |   6 F                |    90.00
    3 F                |   1 S                |   7 F                |    90.00
    4 F                |   1 S                |   5 F                |   180.00
    4 F                |   1 S                |   6 F                |    90.00
    4 F                |   1 S                |   7 F                |    90.00
    5 F                |   1 S                |   6 F                |    90.00
    5 F                |   1 S                |   7 F                |    90.00
    6 F                |   1 S                |   7 F                |   180.00
 ------------------------------------------------------------------------------
                            number of included internuclear angles:         15
 ==============================================================================



                      Basis "ao basis" -> "" (cartesian)
                      -----
  S (Sulphur)
  -----------
            Exponent  Coefficients 
       -------------- ---------------------------------------------------------
  1 S  3.74100000E+05  0.000054
  1 S  5.60500000E+04  0.000421
  1 S  1.27600000E+04  0.002207
  1 S  3.61500000E+03  0.009193
  1 S  1.18300000E+03  0.032112
  1 S  4.28800000E+02  0.094668
  1 S  1.67800000E+02  0.223630
  1 S  6.94700000E+01  0.374393
  1 S  2.98400000E+01  0.329108
  1 S  1.27200000E+01  0.084704
  1 S  5.24400000E+00  0.000441
  1 S  2.21900000E+00  0.001648
  1 S  3.49000000E-01  0.000301
 
  2 S  3.74100000E+05 -0.000015
  2 S  5.60500000E+04 -0.000116
  2 S  1.27600000E+04 -0.000612
  2 S  3.61500000E+03 -0.002554
  2 S  1.18300000E+03 -0.009087
  2 S  4.28800000E+02 -0.027704
  2 S  1.67800000E+02 -0.072002
  2 S  6.94700000E+01 -0.146439
  2 S  2.98400000E+01 -0.195150
  2 S  1.27200000E+01  0.008192
  2 S  5.24400000E+00  0.516601
  2 S  2.21900000E+00  0.542178
  2 S  3.49000000E-01 -0.009181
 
  3 S  3.74100000E+05  0.000004
  3 S  5.60500000E+04  0.000034
  3 S  1.27600000E+04  0.000178
  3 S  3.61500000E+03  0.000741
  3 S  1.18300000E+03  0.002646
  3 S  4.28800000E+02  0.008075
  3 S  1.67800000E+02  0.021228
  3 S  6.94700000E+01  0.043832
  3 S  2.98400000E+01  0.061272
  3 S  1.27200000E+01 -0.003615
  3 S  5.24400000E+00 -0.204510
  3 S  2.21900000E+00 -0.381871
  3 S  3.49000000E-01  0.714147
 
  4 S  7.76700000E-01  1.000000
 
  5 S  1.32200000E-01  1.000000
 
  6 P  5.74400000E+02  0.002423
  6 P  1.35800000E+02  0.019280
  6 P  4.31900000E+01  0.088540
  6 P  1.58700000E+01  0.254654
  6 P  6.20800000E+00  0.433984
  6 P  2.48300000E+00  0.354953
  6 P  3.22900000E-01 -0.005030
 
  7 P  5.74400000E+02 -0.000620
  7 P  1.35800000E+02 -0.004939
  7 P  4.31900000E+01 -0.023265
  7 P  1.58700000E+01 -0.068519
  7 P  6.20800000E+00 -0.123896
  7 P  2.48300000E+00 -0.096950
  7 P  3.22900000E-01  0.569394
 
  8 P  8.68800000E-01  1.000000
 
  9 P  1.09800000E-01  1.000000
 
 10 D  2.69000000E-01  1.000000
 
 11 D  8.19000000E-01  1.000000
 
 12 F  5.57000000E-01  1.000000
 
  F (Fluorine)
  ------------
            Exponent  Coefficients 
       -------------- ---------------------------------------------------------
  1 S  1.95000000E+04  0.000507
  1 S  2.92300000E+03  0.003923
  1 S  6.64500000E+02  0.020200
  1 S  1.87500000E+02  0.079010
  1 S  6.06200000E+01  0.230439
  1 S  2.14200000E+01  0.432872
  1 S  7.95000000E+00  0.349964
  1 S  8.81500000E-01 -0.007892
 
  2 S  1.95000000E+04 -0.000117
  2 S  2.92300000E+03 -0.000912
  2 S  6.64500000E+02 -0.004717
  2 S  1.87500000E+02 -0.019086
  2 S  6.06200000E+01 -0.059655
  2 S  2.14200000E+01 -0.140010
  2 S  7.95000000E+00 -0.176782
  2 S  8.81500000E-01  0.605043
 
  3 S  2.25700000E+00  1.000000
 
  4 S  3.04100000E-01  1.000000
 
  5 P  4.38800000E+01  0.016665
  5 P  9.92600000E+00  0.104472
  5 P  2.93000000E+00  0.317260
 
  6 P  9.13200000E-01  1.000000
 
  7 P  2.67200000E-01  1.000000
 
  8 D  3.10700000E+00  1.000000
 
  9 D  8.55000000E-01  1.000000
 
 10 F  1.91700000E+00  1.000000
 


 Summary of "ao basis" -> "" (cartesian)
 ------------------------------------------------------------------------------
       Tag                 Description            Shells   Functions and Types
 ---------------- ------------------------------  ------  ---------------------
 S                          cc-pvtz                 12       39   5s4p2d1f
 F                          cc-pvtz                 10       35   4s3p2d1f


 
 
                           NWChem Geometry Optimization
                           ----------------------------
 
 
 
 
                             SF6 in cc-pvtz basis set
 
 
 maximum gradient threshold         (gmax) =   0.000450
 rms gradient threshold             (grms) =   0.000300
 maximum cartesian step threshold   (xmax) =   0.001800
 rms cartesian step threshold       (xrms) =   0.001200
 fixed trust radius                (trust) =   0.300000
 maximum step size to saddle      (sadstp) =   0.100000
 energy precision                  (eprec) =   1.0D-07
 maximum number of steps          (nptopt) =   20
 initial hessian option           (inhess) =    0
 line search option               (linopt) =    1
 hessian update option            (modupd) =    1
 saddle point option              (modsad) =    0
 initial eigen-mode to follow     (moddir) =    0
 initial variable to follow       (vardir) =    0
 follow first negative mode     (firstneg) =    T
 apply conjugacy                    (opcg) =    F
 source of zmatrix                         =   autoz   


          -------------------
          Energy Minimization
          -------------------

 
 Names of Z-matrix variables 
    1              2              3              4              5         
    6              7              8              9             10         
   11             12             13             14             15         
   16             17             18         
 
 Variables with the same non-blank name are constrained to be equal
 
 
 Using diagonal initial Hessian 
 Scaling for Hessian diagonals: bonds = 1.00  angles = 0.25  torsions = 0.10

          --------
          Step   0
          --------
 
 
                         Geometry "geometry" -> "geometry"
                         ---------------------------------
 
 Output coordinates in a.u. (scale by  1.000000000 to convert to a.u.)
 
  No.       Tag          Charge          X              Y              Z
 ---- ---------------- ---------- -------------- -------------- --------------
    1 S                   16.0000     0.00000000     0.00000000     0.00000000
    2 F                    9.0000     0.00000000     2.96638659     0.00000000
    3 F                    9.0000     0.00000000    -2.96638659     0.00000000
    4 F                    9.0000     0.00000000     0.00000000     2.96638659
    5 F                    9.0000     0.00000000     0.00000000    -2.96638659
    6 F                    9.0000     2.96638659     0.00000000     0.00000000
    7 F                    9.0000    -2.96638659     0.00000000     0.00000000
 
      Atomic Mass 
      ----------- 
 
      S                 31.972070
      F                 18.998400
 

 Effective nuclear repulsion energy (a.u.)     563.9210334056

            Nuclear Dipole moment (a.u.) 
            ----------------------------
        X                 Y               Z
 ---------------- ---------------- ----------------
     0.0000000000     0.0000000000     0.0000000000
 
      Symmetry information
      --------------------
 
 Group name              Oh       
 Group number             44
 Group order              48
 No. of unique centers     2
 
      Symmetry unique atoms
 
     1    2
 
                                 NWChem SCF Module
                                 -----------------
 
 
                             SF6 in cc-pvtz basis set
 
 

  ao basis        = "ao basis"
  functions       =   249
  atoms           =     7
  closed shells   =    35
  open shells     =     0
  charge          =   0.00
  wavefunction    = RHF 
  input vectors   = atomic
  output vectors  = ./sf6.movecs
  use symmetry    = T
  symmetry adapt  = T


 Summary of "ao basis" -> "ao basis" (cartesian)
 ------------------------------------------------------------------------------
       Tag                 Description            Shells   Functions and Types
 ---------------- ------------------------------  ------  ---------------------
 S                          cc-pvtz                 12       39   5s4p2d1f
 F                          cc-pvtz                 10       35   4s3p2d1f


      Symmetry analysis of basis
      --------------------------
 
        a1g        20
        a1u         0
        a2g         3
        a2u         4
        eg         36
        eu          6
        t1g        24
        t1u        81
        t2g        39
        t2u        36
 

 Forming initial guess at       6.0s

 
      Superposition of Atomic Density Guess
      -------------------------------------
 
 Sum of atomic energies:        -993.95840819
 
      Non-variational initial energy
      ------------------------------

 Total energy =    -995.939670
 1-e energy   =   -2510.640752
 2-e energy   =     950.780048
 HOMO         =      -0.564254
 LUMO         =       0.054355
 
 
      Symmetry analysis of molecular orbitals - initial
      -------------------------------------------------
 
  Numbering of irreducible representations: 
 
     1 a1g         2 a1u         3 a2g         4 a2u         5 eg      
     6 eu          7 t1g         8 t1u         9 t2g        10 t2u     
 
  Orbital symmetries:
 
     1 a1g         2 a1g         3 t1u         4 t1u         5 t1u     
     6 eg          7 eg          8 a1g         9 t1u        10 t1u     
    11 t1u        12 a1g        13 t1u        14 t1u        15 t1u     
    16 eg         17 eg         18 a1g        19 t1u        20 t1u     
    21 t1u        22 t2g        23 t2g        24 t2g        25 eg      
    26 eg         27 t2u        28 t2u        29 t2u        30 t1u     
    31 t1u        32 t1u        33 t1g        34 t1g        35 t1g     
    36 a1g        37 t1u        38 t1u        39 t1u        40 a1g     
    41 t1u        42 t1u        43 t1u        44 t2g        45 t2g     
 

 Starting SCF solution at      10.0s



 ----------------------------------------------
         Quadratically convergent ROHF

 Convergence threshold     :          1.000E-06
 Maximum no. of iterations :           30
 Final Fock-matrix accuracy:          1.000E-08
 ----------------------------------------------


              iter       energy          gnorm     gmax       time
             ----- ------------------- --------- --------- --------
                 1     -994.0089294600  2.59D+00  5.73D-01      4.7
                 2     -994.2837336246  5.39D-01  1.08D-01      6.0
                 3     -994.2988476727  1.63D-01  3.07D-02      7.3
                 4     -994.3006086308  3.68D-03  8.72D-04      9.9
                 5     -994.3006094965  3.10D-06  1.02D-06     11.7
                 6     -994.3006094965  3.20D-08  6.25D-09     12.8


       Final RHF  results 
       ------------------ 

         Total SCF energy =   -994.300609496460
      One-electron energy =  -2504.989285811494
      Two-electron energy =    946.767642909432
 Nuclear repulsion energy =    563.921033405603

        Time for solution =      9.1s


 
       Symmetry analysis of molecular orbitals - final
       -----------------------------------------------
 
  Numbering of irreducible representations: 
 
     1 a1g         2 a1u         3 a2g         4 a2u         5 eg      
     6 eu          7 t1g         8 t1u         9 t2g        10 t2u     
 
  Orbital symmetries:
 
     1 a1g         2 eg          3 eg          4 t1u         5 t1u     
     6 t1u         7 a1g         8 a1g         9 t1u        10 t1u     
    11 t1u        12 a1g        13 t1u        14 t1u        15 t1u     
    16 eg         17 eg         18 a1g        19 t1u        20 t1u     
    21 t1u        22 t2g        23 t2g        24 t2g        25 eg      
    26 eg         27 t2u        28 t2u        29 t2u        30 t1u     
    31 t1u        32 t1u        33 t1g        34 t1g        35 t1g     
    36 a1g        37 t1u        38 t1u        39 t1u        40 a1g     
    41 t1u        42 t1u        43 t1u        44 t2g        45 t2g     
 
             Final eigenvalues
             -----------------

              1      
    1  -92.4571
    2  -26.3805
    3  -26.3805
    4  -26.3804
    5  -26.3804
    6  -26.3804
    7  -26.3804
    8   -9.3889
    9   -7.0774
   10   -7.0774
   11   -7.0774
   12   -1.8305
   13   -1.7048
   14   -1.7048
   15   -1.7048
   16   -1.6518
   17   -1.6518
   18   -1.0932
   19   -0.9163
   20   -0.9163
   21   -0.9163
   22   -0.8250
   23   -0.8250
   24   -0.8250
   25   -0.7309
   26   -0.7309
   27   -0.7248
   28   -0.7248
   29   -0.7248
   30   -0.7122
   31   -0.7122
   32   -0.7122
   33   -0.6759
   34   -0.6759
   35   -0.6759
   36    0.1485
   37    0.3233
   38    0.3233
   39    0.3233
   40    0.3528
   41    0.4066
   42    0.4066
   43    0.4066
   44    0.6047
   45    0.6047
 
                       ROHF Final Molecular Orbital Analysis
                       -------------------------------------
 
 Vector   18  Occ=2.000000D+00  E=-1.093162D+00  Symmetry=a1g
              MO Center=  3.5D-18, -2.9D-17,  5.4D-17, r^2= 2.6D+00
   Bfn.  Coefficient  Atom+Function         Bfn.  Coefficient  Atom+Function  
  ----- ------------  ---------------      ----- ------------  ---------------
     3      0.449515  1 S  s          
 
 Vector   19  Occ=2.000000D+00  E=-9.163106D-01  Symmetry=t1u
              MO Center=  1.4D-15,  1.0D-15, -2.4D-16, r^2= 2.6D+00
   Bfn.  Coefficient  Atom+Function         Bfn.  Coefficient  Atom+Function  
  ----- ------------  ---------------      ----- ------------  ---------------
     9      0.179301  1 S  px         
 
 Vector   20  Occ=2.000000D+00  E=-9.163106D-01  Symmetry=t1u
              MO Center=  2.1D-16, -7.8D-17, -3.7D-17, r^2= 2.6D+00
   Bfn.  Coefficient  Atom+Function         Bfn.  Coefficient  Atom+Function  
  ----- ------------  ---------------      ----- ------------  ---------------
    11      0.168887  1 S  pz                 9     -0.155159  1 S  px         
 
 Vector   21  Occ=2.000000D+00  E=-9.163106D-01  Symmetry=t1u
              MO Center=  5.6D-17,  2.1D-16, -2.2D-16, r^2= 2.6D+00
   Bfn.  Coefficient  Atom+Function         Bfn.  Coefficient  Atom+Function  
  ----- ------------  ---------------      ----- ------------  ---------------
    10      0.190517  1 S  py                48     -0.158818  2 F  py         
    83     -0.158818  3 F  py         
 
 Vector   22  Occ=2.000000D+00  E=-8.249968D-01  Symmetry=t2g
              MO Center=  0.0D+00, -5.0D-18, -1.1D-16, r^2= 2.7D+00
   Bfn.  Coefficient  Atom+Function         Bfn.  Coefficient  Atom+Function  
  ----- ------------  ---------------      ----- ------------  ---------------
   117     -0.217794  4 F  px               152      0.217794  5 F  px         
   189     -0.217794  6 F  pz               224      0.217794  7 F  pz         
   114     -0.174355  4 F  px               149      0.174355  5 F  px         
   186     -0.174355  6 F  pz               221      0.174355  7 F  pz         
    20     -0.151518  1 S  dxz        
 
 Vector   23  Occ=2.000000D+00  E=-8.249968D-01  Symmetry=t2g
              MO Center= -7.8D-16, -6.3D-16, -1.5D-16, r^2= 2.7D+00
   Bfn.  Coefficient  Atom+Function         Bfn.  Coefficient  Atom+Function  
  ----- ------------  ---------------      ----- ------------  ---------------
    47     -0.218076  2 F  px                82      0.218076  3 F  px         
   188     -0.218076  6 F  py               223      0.218076  7 F  py         
    44     -0.174581  2 F  px                79      0.174581  3 F  px         
   185     -0.174581  6 F  py               220      0.174581  7 F  py         
    19     -0.151714  1 S  dxy        
 
 Vector   24  Occ=2.000000D+00  E=-8.249968D-01  Symmetry=t2g
              MO Center= -1.6D-18, -8.0D-17,  2.6D-16, r^2= 2.7D+00
   Bfn.  Coefficient  Atom+Function         Bfn.  Coefficient  Atom+Function  
  ----- ------------  ---------------      ----- ------------  ---------------
    49     -0.220597  2 F  pz                84      0.220597  3 F  pz         
   118     -0.220597  4 F  py               153      0.220597  5 F  py         
    46     -0.176598  2 F  pz                81      0.176598  3 F  pz         
   115     -0.176598  4 F  py               150      0.176598  5 F  py         
    22     -0.153468  1 S  dyz        
 
 Vector   25  Occ=2.000000D+00  E=-7.308628D-01  Symmetry=eg
              MO Center= -7.0D-17, -8.1D-16, -3.7D-16, r^2= 2.9D+00
   Bfn.  Coefficient  Atom+Function         Bfn.  Coefficient  Atom+Function  
  ----- ------------  ---------------      ----- ------------  ---------------
    48     -0.240073  2 F  py                83      0.240073  3 F  py         
   119      0.221163  4 F  pz               154     -0.221163  5 F  pz         
    45     -0.187685  2 F  py                80      0.187685  3 F  py         
   116      0.172901  4 F  pz               151     -0.172901  5 F  pz         
 
 Vector   26  Occ=2.000000D+00  E=-7.308628D-01  Symmetry=eg
              MO Center= -1.6D-15, -4.4D-16,  4.0D-16, r^2= 2.9D+00
   Bfn.  Coefficient  Atom+Function         Bfn.  Coefficient  Atom+Function  
  ----- ------------  ---------------      ----- ------------  ---------------
   187     -0.266295  6 F  px               222      0.266295  7 F  px         
   184     -0.208185  6 F  px               219      0.208185  7 F  px         
   190     -0.166304  6 F  px               225      0.166304  7 F  px         
    24      0.151606  1 S  dxx        
 
 Vector   27  Occ=2.000000D+00  E=-7.247657D-01  Symmetry=t2u
              MO Center= -1.4D-16, -1.3D-16,  6.4D-17, r^2= 2.8D+00
   Bfn.  Coefficient  Atom+Function         Bfn.  Coefficient  Atom+Function  
  ----- ------------  ---------------      ----- ------------  ---------------
    49     -0.217218  2 F  pz                84     -0.217218  3 F  pz         
   189      0.217218  6 F  pz               224      0.217218  7 F  pz         
    46     -0.173316  2 F  pz                81     -0.173316  3 F  pz         
   186      0.173316  6 F  pz               221      0.173316  7 F  pz         
    52     -0.154076  2 F  pz                87     -0.154076  3 F  pz         
 
 Vector   28  Occ=2.000000D+00  E=-7.247657D-01  Symmetry=t2u
              MO Center=  4.0D-16,  1.3D-17, -2.3D-16, r^2= 2.8D+00
   Bfn.  Coefficient  Atom+Function         Bfn.  Coefficient  Atom+Function  
  ----- ------------  ---------------      ----- ------------  ---------------
   118      0.217225  4 F  py               153      0.217225  5 F  py         
   188     -0.217225  6 F  py               223     -0.217225  7 F  py         
   115      0.173321  4 F  py               150      0.173321  5 F  py         
   185     -0.173321  6 F  py               220     -0.173321  7 F  py         
   121      0.154081  4 F  py               156      0.154081  5 F  py         
 
 Vector   29  Occ=2.000000D+00  E=-7.247657D-01  Symmetry=t2u
              MO Center=  1.5D-16,  7.0D-16,  1.7D-16, r^2= 2.8D+00
   Bfn.  Coefficient  Atom+Function         Bfn.  Coefficient  Atom+Function  
  ----- ------------  ---------------      ----- ------------  ---------------
    47      0.244117  2 F  px                82      0.244117  3 F  px         
   117     -0.244117  4 F  px               152     -0.244117  5 F  px         
    44      0.194779  2 F  px                79      0.194779  3 F  px         
   114     -0.194779  4 F  px               149     -0.194779  5 F  px         
    50      0.173156  2 F  px                85      0.173156  3 F  px         
 
 Vector   30  Occ=2.000000D+00  E=-7.122464D-01  Symmetry=t1u
              MO Center=  3.1D-16,  1.3D-16, -1.5D-16, r^2= 2.9D+00
   Bfn.  Coefficient  Atom+Function         Bfn.  Coefficient  Atom+Function  
  ----- ------------  ---------------      ----- ------------  ---------------
    47      0.190052  2 F  px                82      0.190052  3 F  px         
   117      0.190052  4 F  px               152      0.190052  5 F  px         
 
 Vector   31  Occ=2.000000D+00  E=-7.122464D-01  Symmetry=t1u
              MO Center= -1.4D-16, -2.1D-17,  4.1D-17, r^2= 2.9D+00
   Bfn.  Coefficient  Atom+Function         Bfn.  Coefficient  Atom+Function  
  ----- ------------  ---------------      ----- ------------  ---------------
    49      0.160024  2 F  pz                84      0.160024  3 F  pz         
   189      0.160024  6 F  pz               224      0.160024  7 F  pz         
 
 Vector   32  Occ=2.000000D+00  E=-7.122464D-01  Symmetry=t1u
              MO Center=  5.4D-16, -1.7D-16,  5.1D-17, r^2= 2.9D+00
   Bfn.  Coefficient  Atom+Function         Bfn.  Coefficient  Atom+Function  
  ----- ------------  ---------------      ----- ------------  ---------------
   118      0.163758  4 F  py               153      0.163758  5 F  py         
   188      0.163758  6 F  py               223      0.163758  7 F  py         
 
 Vector   33  Occ=2.000000D+00  E=-6.759199D-01  Symmetry=t1g
              MO Center= -2.8D-17,  2.5D-17, -2.0D-17, r^2= 2.9D+00
   Bfn.  Coefficient  Atom+Function         Bfn.  Coefficient  Atom+Function  
  ----- ------------  ---------------      ----- ------------  ---------------
    47      0.219098  2 F  px                82     -0.219098  3 F  px         
   188     -0.219098  6 F  py               223      0.219098  7 F  py         
    44      0.164332  2 F  px                79     -0.164332  3 F  px         
   185     -0.164332  6 F  py               220      0.164332  7 F  py         
   117      0.153120  4 F  px               152     -0.153120  5 F  px         
 
 Vector   34  Occ=2.000000D+00  E=-6.759199D-01  Symmetry=t1g
              MO Center=  8.3D-17, -2.0D-17, -2.0D-16, r^2= 2.9D+00
   Bfn.  Coefficient  Atom+Function         Bfn.  Coefficient  Atom+Function  
  ----- ------------  ---------------      ----- ------------  ---------------
   117     -0.219274  4 F  px               152      0.219274  5 F  px         
   189      0.219274  6 F  pz               224     -0.219274  7 F  pz         
   114     -0.164464  4 F  px               149      0.164464  5 F  px         
   186      0.164464  6 F  pz               221     -0.164464  7 F  pz         
    47      0.153965  2 F  px                82     -0.153965  3 F  px         
 
 Vector   35  Occ=2.000000D+00  E=-6.759199D-01  Symmetry=t1g
              MO Center=  2.4D-17,  4.5D-16, -4.6D-16, r^2= 2.9D+00
   Bfn.  Coefficient  Atom+Function         Bfn.  Coefficient  Atom+Function  
  ----- ------------  ---------------      ----- ------------  ---------------
    49      0.267184  2 F  pz                84     -0.267184  3 F  pz         
   118     -0.267184  4 F  py               153      0.267184  5 F  py         
    46      0.200398  2 F  pz                81     -0.200398  3 F  pz         
   115     -0.200398  4 F  py               150      0.200398  5 F  py         
    52      0.182050  2 F  pz                87     -0.182050  3 F  pz         
 
 Vector   36  Occ=0.000000D+00  E= 1.485090D-01  Symmetry=a1g
              MO Center= -1.4D-16,  3.7D-17, -6.4D-17, r^2= 2.4D+00
   Bfn.  Coefficient  Atom+Function         Bfn.  Coefficient  Atom+Function  
  ----- ------------  ---------------      ----- ------------  ---------------
     5      1.349597  1 S  s                  3      0.783720  1 S  s          
    43     -0.524826  2 F  s                 78     -0.524826  3 F  s          
   113     -0.524826  4 F  s                148     -0.524826  5 F  s          
   183     -0.524826  6 F  s                218     -0.524826  7 F  s          
    51      0.367225  2 F  py                86     -0.367225  3 F  py         
 
 Vector   37  Occ=0.000000D+00  E= 3.233024D-01  Symmetry=t1u
              MO Center= -5.8D-16,  1.2D-17,  1.2D-16, r^2= 4.1D+00
   Bfn.  Coefficient  Atom+Function         Bfn.  Coefficient  Atom+Function  
  ----- ------------  ---------------      ----- ------------  ---------------
    15      1.997754  1 S  px               183     -1.407457  6 F  s          
   218      1.407457  7 F  s                 17      0.965615  1 S  pz         
   113     -0.680295  4 F  s                148      0.680295  5 F  s          
     9      0.574884  1 S  px               190      0.510715  6 F  px         
   225      0.510715  7 F  px                11      0.277870  1 S  pz         
 
 Vector   38  Occ=0.000000D+00  E= 3.233024D-01  Symmetry=t1u
              MO Center= -8.7D-17, -2.0D-16,  1.6D-15, r^2= 4.1D+00
   Bfn.  Coefficient  Atom+Function         Bfn.  Coefficient  Atom+Function  
  ----- ------------  ---------------      ----- ------------  ---------------
    17      2.012404  1 S  pz               113     -1.417778  4 F  s          
   148      1.417778  5 F  s                 15     -0.962954  1 S  px         
   183      0.678420  6 F  s                218     -0.678420  7 F  s          
    11      0.579100  1 S  pz               122      0.514461  4 F  pz         
   157      0.514461  5 F  pz                 9     -0.277104  1 S  px         
 
 Vector   39  Occ=0.000000D+00  E= 3.233024D-01  Symmetry=t1u
              MO Center=  4.5D-17, -4.2D-17,  7.0D-17, r^2= 4.1D+00
   Bfn.  Coefficient  Atom+Function         Bfn.  Coefficient  Atom+Function  
  ----- ------------  ---------------      ----- ------------  ---------------
    16      2.217457  1 S  py                43     -1.562242  2 F  s          
    78      1.562242  3 F  s                 10      0.638107  1 S  py         
    51      0.566881  2 F  py                86      0.566881  3 F  py         
   121     -0.298035  4 F  py               156     -0.298035  5 F  py         
   191     -0.298035  6 F  py               226     -0.298035  7 F  py         
 
 Vector   40  Occ=0.000000D+00  E= 3.527762D-01  Symmetry=a1g
              MO Center=  1.7D-15,  4.7D-16, -3.1D-15, r^2= 5.1D+00
   Bfn.  Coefficient  Atom+Function         Bfn.  Coefficient  Atom+Function  
  ----- ------------  ---------------      ----- ------------  ---------------
     5      9.504260  1 S  s                 18     -1.986399  1 S  dxx        
    21     -1.986399  1 S  dyy               23     -1.986399  1 S  dzz        
     4     -1.844507  1 S  s                 43     -1.044030  2 F  s          
    78     -1.044030  3 F  s                113     -1.044030  4 F  s          
   148     -1.044030  5 F  s                183     -1.044030  6 F  s          
 
 Vector   41  Occ=0.000000D+00  E= 4.066018D-01  Symmetry=t1u
              MO Center= -6.9D-18,  3.4D-16,  8.2D-17, r^2= 3.8D+00
   Bfn.  Coefficient  Atom+Function         Bfn.  Coefficient  Atom+Function  
  ----- ------------  ---------------      ----- ------------  ---------------
    10      2.590156  1 S  py                16     -2.448643  1 S  py         
    43      1.353056  2 F  s                 78     -1.353056  3 F  s          
     7      0.961537  1 S  py                36     -0.774397  1 S  fyyy       
    31     -0.579772  1 S  fxxy              38     -0.579772  1 S  fyzz       
     9     -0.534785  1 S  px                15      0.505567  1 S  px         
 
 Vector   42  Occ=0.000000D+00  E= 4.066018D-01  Symmetry=t1u
              MO Center=  1.6D-15,  3.3D-16, -1.1D-15, r^2= 3.8D+00
   Bfn.  Coefficient  Atom+Function         Bfn.  Coefficient  Atom+Function  
  ----- ------------  ---------------      ----- ------------  ---------------
     9      2.316653  1 S  px                15     -2.190083  1 S  px         
   183      1.210182  6 F  s                218     -1.210182  7 F  s          
    11     -1.175052  1 S  pz                17      1.110854  1 S  pz         
     6      0.860005  1 S  px                30     -0.692626  1 S  fxxx       
   113     -0.613829  4 F  s                148      0.613829  5 F  s          
 
 Vector   43  Occ=0.000000D+00  E= 4.066018D-01  Symmetry=t1u
              MO Center= -7.1D-16, -1.4D-16, -1.9D-15, r^2= 3.8D+00
   Bfn.  Coefficient  Atom+Function         Bfn.  Coefficient  Atom+Function  
  ----- ------------  ---------------      ----- ------------  ---------------
    11      2.369420  1 S  pz                17     -2.239968  1 S  pz         
   113      1.237747  4 F  s                148     -1.237747  5 F  s          
     9      1.159394  1 S  px                15     -1.096051  1 S  px         
     8      0.879594  1 S  pz                39     -0.708403  1 S  fzzz       
   183      0.605649  6 F  s                218     -0.605649  7 F  s          
 
 Vector   44  Occ=0.000000D+00  E= 6.047227D-01  Symmetry=t2g
              MO Center= -4.2D-17,  4.0D-18,  7.4D-18, r^2= 1.7D+00
   Bfn.  Coefficient  Atom+Function         Bfn.  Coefficient  Atom+Function  
  ----- ------------  ---------------      ----- ------------  ---------------
    20      1.704087  1 S  dxz               26      0.540585  1 S  dxz        
    19      0.432097  1 S  dxy              120     -0.213856  4 F  px         
   155      0.213856  5 F  px               192     -0.213856  6 F  pz         
   227      0.213856  7 F  pz         
 
 Vector   45  Occ=0.000000D+00  E= 6.047227D-01  Symmetry=t2g
              MO Center= -5.2D-18, -2.3D-17, -5.1D-18, r^2= 1.7D+00
   Bfn.  Coefficient  Atom+Function         Bfn.  Coefficient  Atom+Function  
  ----- ------------  ---------------      ----- ------------  ---------------
    22      1.757977  1 S  dyz               28      0.557680  1 S  dyz        
    52     -0.220619  2 F  pz                87      0.220619  3 F  pz         
   121     -0.220619  4 F  py               156      0.220619  5 F  py         
 

 center of mass
 --------------
 x =   0.00000000 y =   0.00000000 z =   0.00000000

 moments of inertia (a.u.)
 ------------------
         668.701838025051           0.000000000000           0.000000000000
           0.000000000000         668.701838025051           0.000000000000
           0.000000000000           0.000000000000         668.701838025051
 
  Mulliken analysis of the total density
  --------------------------------------

    Atom       Charge   Shell Charges
 -----------   ------   -------------------------------------------------------
    1 S   16    14.60   2.00  1.89  0.83  0.21  0.01  5.90  0.95  0.73  0.13  0.62  0.56  0.77
    2 F    9     9.23   1.94  1.07  0.27  0.60  1.53  2.51  1.26  0.01  0.04  0.00
    3 F    9     9.23   1.94  1.07  0.27  0.60  1.53  2.51  1.26  0.01  0.04  0.00
    4 F    9     9.23   1.94  1.07  0.27  0.60  1.53  2.51  1.26  0.01  0.04  0.00
    5 F    9     9.23   1.94  1.07  0.27  0.60  1.53  2.51  1.26  0.01  0.04  0.00
    6 F    9     9.23   1.94  1.07  0.27  0.60  1.53  2.51  1.26  0.01  0.04  0.00
    7 F    9     9.23   1.94  1.07  0.27  0.60  1.53  2.51  1.26  0.01  0.04  0.00
 
       Multipole analysis of the density wrt the origin
       ------------------------------------------------
 
     L   x y z        total         open         nuclear
     -   - - -        -----         ----         -------
     0   0 0 0      0.000000      0.000000     70.000000
 
     1   1 0 0      0.000000      0.000000      0.000000
     1   0 1 0      0.000000      0.000000      0.000000
     1   0 0 1      0.000000      0.000000      0.000000
 
     2   2 0 0    -31.793608      0.000000    158.390089
     2   1 1 0      0.000000      0.000000      0.000000
     2   1 0 1      0.000000      0.000000      0.000000
     2   0 2 0    -31.793608      0.000000    158.390089
     2   0 1 1      0.000000      0.000000      0.000000
     2   0 0 2    -31.793608      0.000000    158.390089
 
                   NWChem MP2 Semi-direct Energy/Gradient Module
                   ---------------------------------------------
 
 
                             SF6 in cc-pvtz basis set
 
 
  Basis functions       =    249
  Molecular orbitals    =    249
  Frozen core           =      0
  Frozen virtuals       =      0
  Active alpha occupied =     35
  Active beta occupied  =     35
  Active alpha virtual  =    214
  Active beta virtual   =    214
  Use MO symmetry       = F
  Use skeleton AO sym   = T

  AO/Fock/Back tols     =   1.0D-09  1.0D-09  1.0D-09

 GA uses MA = F    GA memory limited = T

 Available: 
  local mem=  1.18D+08
 global mem=  1.18D+08
 local disk=  1.31D+07
   1 passes of  35:        4914013                     769908                   6407770.
 
 Semi-direct pass number   1 of   1  for RHF alpha+beta  at       43.1s
Node 0 wrote     33.2 Mb in      0.0 s     Agg I/O rate:827088.3 Mb/s
 Done moints_semi at       62.7s
 Done maket at       74.4s
 Done pijab at       74.6s
 Done wijab at       74.8s
 Done lai at       77.0s
 Done nonsep at       83.0s
 Done multipass loop at       83.0s


          -------------------------------------------
          SCF energy                -994.300609496460
          Correlation energy          -1.882992571900
          Singlet pairs               -1.130265495757
          Triplet pairs               -0.752727076143
          Total MP2 energy          -996.183602068360
          -------------------------------------------

                                NWChem CPHF Module
                                ------------------
 
 
    scftype = RHF 
    nclosed =   35
      nopen =    0
  variables =     7490
  tolerance =   1.0D-04
  max. iter =  100

 SCF residual:   3.203106367667211E-008

            ----- linear solve (tol: 1.0E-04 prod-acc: 4.2E-10) -----

               iter nbas    rnorm     rnorm-scal   ratio     time
               ---- ---- ----------- ----------- --------- -------
                  1    1  7.2810E-02  2.0222E-01    0.0000    27.0
                  2    2  2.2802E-02  6.3330E-02    0.3132    27.3
                  3    3  5.7528E-03  1.5978E-02    0.2523    27.5
                  4    4  1.3980E-03  3.8827E-03    0.2430    27.8
                  5    5  2.7678E-04  7.6872E-04    0.1980    28.0
                  6    6  3.0518E-05  8.4759E-05    0.1103    28.2

 CPHF converged to   8.5D-05 in    6 iters

                Dipole Moments (a.u.)
                --------------
         Nuclear       SCF       SCF+MP2
       ----------- ----------- -----------
 X       0.000000    0.000000    0.000000
 Y       0.000000    0.000000    0.000000
 Z       0.000000    0.000000    0.000000
 

 MP2 RHF      natural orbital occupation numbers


              1      
    1    2.0000
    2    1.9996
    3    1.9996
    4    1.9996
    5    1.9996
    6    1.9996
    7    1.9996
    8    1.9993
    9    1.9989
   10    1.9989
   11    1.9989
   12    1.9891
   13    1.9878
   14    1.9878
   15    1.9878
   16    1.9870
   17    1.9870
   18    1.9756
   19    1.9756
   20    1.9756
   21    1.9742
   22    1.9742
   23    1.9742
   24    1.9707
   25    1.9707
   26    1.9707
   27    1.9707
   28    1.9680
   29    1.9680
   30    1.9680
   31    1.9601
   32    1.9601
   33    1.9601
   34    1.9539
   35    1.9539
   36    0.0572
   37    0.0375
   38    0.0375
   39    0.0375
   40    0.0266
   41    0.0266
   42    0.0266
   43    0.0163
   44    0.0163
   45    0.0163
   46    0.0145
   47    0.0145
   48    0.0145
   49    0.0128
   50    0.0128
   51    0.0102
   52    0.0102
   53    0.0102
   54    0.0099
   55    0.0096
   56    0.0096
   57    0.0082
   58    0.0082
   59    0.0082
   60    0.0062
   61    0.0062
   62    0.0062
   63    0.0056
   64    0.0056
   65    0.0056
   66    0.0055
   67    0.0055
   68    0.0055
   69    0.0055
   70    0.0055
   71    0.0051
   72    0.0050
   73    0.0047
   74    0.0047
   75    0.0047
   76    0.0046
   77    0.0046
   78    0.0046
   79    0.0045
   80    0.0045
   81    0.0044
   82    0.0044
   83    0.0044
   84    0.0043
   85    0.0042
   86    0.0042
   87    0.0042
   88    0.0042
   89    0.0042
   90    0.0022
   91    0.0019
   92    0.0019
   93    0.0019
   94    0.0018
   95    0.0018
   96    0.0018
   97    0.0010
   98    0.0010
   99    0.0010
  100    0.0009
  101    0.0009
  102    0.0009
  103    0.0009
  104    0.0009
  105    0.0009
  106    0.0006
  107    0.0006
  108    0.0006
  109    0.0006
  110    0.0006
  111    0.0006
  112    0.0006
  113    0.0006
  114    0.0006
  115    0.0006
  116    0.0005
  117    0.0005
  118    0.0005
  119    0.0005
  120    0.0005
  121    0.0005
  122    0.0005
  123    0.0005
  124    0.0005
  125    0.0005
  126    0.0005
  127    0.0004
  128    0.0004
  129    0.0004
  130    0.0004
  131    0.0004
  132    0.0004
  133    0.0004
  134    0.0003
  135    0.0003
  136    0.0003
  137    0.0003
  138    0.0003
  139    0.0003
  140    0.0003
  141    0.0003
  142    0.0003
  143    0.0003
  144    0.0003
  145    0.0003
  146    0.0003
  147    0.0003
  148    0.0003
  149    0.0003
  150    0.0003
  151    0.0003
  152    0.0003
  153    0.0003
  154    0.0003
  155    0.0003
  156    0.0003
  157    0.0003
  158    0.0003
  159    0.0003
  160    0.0003
  161    0.0003
  162    0.0003
  163    0.0003
  164    0.0003
  165    0.0003
  166    0.0003
  167    0.0003
  168    0.0003
  169    0.0003
  170    0.0003
  171    0.0003
  172    0.0003
  173    0.0003
  174    0.0003
  175    0.0003
  176    0.0003
  177    0.0003
  178    0.0003
  179    0.0003
  180    0.0003
  181    0.0003
  182    0.0003
  183    0.0003
  184    0.0003
  185    0.0003
  186    0.0003
  187    0.0003
  188    0.0002
  189    0.0002
  190    0.0002
  191    0.0002
  192    0.0002
  193    0.0002
  194    0.0002
  195    0.0002
  196    0.0002
  197    0.0002
  198    0.0001
  199    0.0001
  200    0.0001
  201    0.0001
  202    0.0001
  203    0.0001
  204    0.0001
  205    0.0001
  206    0.0001
  207    0.0001
  208    0.0001
  209    0.0001
  210    0.0001
  211    0.0001
  212    0.0001
  213    0.0001
  214    0.0001
  215    0.0001
  216    0.0000
  217    0.0000
  218    0.0000
  219    0.0000
  220    0.0000
  221    0.0000
  222    0.0000
  223    0.0000
  224    0.0000
  225    0.0000
  226    0.0000
  227    0.0000
  228    0.0000
  229    0.0000
  230    0.0000
  231    0.0000
  232    0.0000
  233    0.0000
  234    0.0000
  235    0.0000
  236    0.0000
  237    0.0000
  238    0.0000
  239    0.0000
  240    0.0000
  241    0.0000
  242    0.0000
  243    0.0000
  244    0.0000
  245    0.0000
  246    0.0000
  247   -0.0001
  248   -0.0001
  249   -0.0001
 
  MP2 natural orbitals output to ./sf6.mp2nos
 
  Using symmetry


                         mp2 ENERGY GRADIENTS

    atom               coordinates                        gradient
                 x          y          z           x          y          z
   1 S       0.000000   0.000000   0.000000    0.000000   0.000000   0.000000
   2 F       0.000000   2.966387   0.000000    0.000000   0.000002   0.000000
   3 F       0.000000  -2.966387   0.000000    0.000000  -0.000002   0.000000
   4 F       0.000000   0.000000   2.966387    0.000000   0.000000   0.000002
   5 F       0.000000   0.000000  -2.966387    0.000000   0.000000  -0.000002
   6 F       2.966387   0.000000   0.000000    0.000002   0.000000   0.000000
   7 F      -2.966387   0.000000   0.000000   -0.000002   0.000000   0.000000
 
                 ----------------------------------------
                 |  Time  |  1-e(secs)   |  2-e(secs)   |
                 ----------------------------------------
                 |  CPU   |       0.00   |       1.11   |
                 ----------------------------------------
                 |  WALL  |       0.01   |       2.70   |
                 ----------------------------------------
 -----------------------
 Performance information
 -----------------------

 Timer overhead =  4.00D-07 seconds/call

               Nr. of calls         CPU time (s)                 Wall time (s)                GFlops
             ---------------    -------------------     ------------------------------   -------------------
Name         Min   Avg   Max    Min     Avg     Max     Min     Avg     Max   Mx/calls   Min     Max     Sum
mp2: moin     1     1     1    3.0     5.7     8.1      20.     20.     20.     20.      0.0     0.0     0.0   
mp2: make     1     1     1    1.9     2.5     3.4      12.     12.     12.     12.      0.0     0.0     0.0   
mp2: pija     1     1     1   9.60E-2 0.19    0.20     0.20    0.20    0.20    0.20      0.0     0.0     0.0   
mp2: wija     1     1     1   0.12    0.19    0.20     0.20    0.20    0.20    0.20      0.0     0.0     0.0   
mp2: lai      1     1     1    1.8     2.1     2.2      2.2     2.2     2.2     2.2      0.0     0.0     0.0   
mp2: back     1     1     1    1.0     1.3     1.6      4.5     4.5     4.5     4.5      0.0     0.0     0.0   
mp2: nons     1     1     1   0.19    0.68     1.4     0.20    0.69     1.4     1.4      0.0     0.0     0.0   
mp2: laif     1     1     1   0.83     1.0     1.2      1.6     1.6     1.6     1.6      0.0     0.0     0.0   
mp2: cphf     1     1     1    1.6     2.2     2.5      4.7     4.7     4.7     4.7      0.0     0.0     0.0   
mp2: wijf     1     1     1   0.82     1.0     1.1      1.5     1.5     1.5     1.5      0.0     0.0     0.0   
mp2: sep      1     1     1   0.49    0.82     1.4      3.1     3.1     3.1     3.1      0.0     0.0     0.0   
mp2: tota     1     1     1    16.     20.     23.      56.     56.     56.     56.      0.0     0.0     0.0   

 The average no. of pstat calls per process was 1.20D+01
 with a timing overhead of 4.80D-06s


@ Step       Energy      Delta E   Gmax     Grms     Xrms     Xmax   Walltime
@ ---- ---------------- -------- -------- -------- -------- -------- --------
@    0    -996.18360207  0.0D+00  0.00000  0.00000  0.00000  0.00000     98.5
                                     ok       ok       ok       ok  



                                Z-matrix (autoz)
                                -------- 

 Units are Angstrom for bonds and degrees for angles
 
      Type          Name      I     J     K     L     M      Value     Gradient
      ----------- --------  ----- ----- ----- ----- ----- ---------- ----------
    1 Stretch                  1     2                       1.56974    0.00000
    2 Stretch                  1     3                       1.56974    0.00000
    3 Stretch                  1     4                       1.56974    0.00000
    4 Stretch                  1     5                       1.56974    0.00000
    5 Stretch                  1     6                       1.56974    0.00000
    6 Stretch                  1     7                       1.56974    0.00000
    7 Bend                     2     1     4                90.00000    0.00000
    8 Bend                     2     1     5                90.00000    0.00000
    9 Bend                     2     1     6                90.00000    0.00000
   10 Bend                     2     1     7                90.00000    0.00000
   11 Bend                     3     1     4                90.00000    0.00000
   12 Bend                     3     1     5                90.00000    0.00000
   13 Bend                     3     1     6                90.00000    0.00000
   14 Bend                     3     1     7                90.00000    0.00000
   15 Bend                     4     1     6                90.00000    0.00000
   16 Bend                     4     1     7                90.00000    0.00000
   17 Bend                     5     1     6                90.00000    0.00000
   18 Bend                     5     1     7                90.00000    0.00000
 
                                 NWChem SCF Module
                                 -----------------
 
 
                             SF6 in cc-pvtz basis set
 
 

  ao basis        = "ao basis"
  functions       =   249
  atoms           =     7
  closed shells   =    35
  open shells     =     0
  charge          =   0.00
  wavefunction    = RHF 
  input vectors   = ./sf6.movecs
  output vectors  = ./sf6.movecs
  use symmetry    = T
  symmetry adapt  = T


 Summary of "ao basis" -> "ao basis" (cartesian)
 ------------------------------------------------------------------------------
       Tag                 Description            Shells   Functions and Types
 ---------------- ------------------------------  ------  ---------------------
 S                          cc-pvtz                 12       39   5s4p2d1f
 F                          cc-pvtz                 10       35   4s3p2d1f


      Symmetry analysis of basis
      --------------------------
 
        a1g        20
        a1u         0
        a2g         3
        a2u         4
        eg         36
        eu          6
        t1g        24
        t1u        81
        t2g        39
        t2u        36
 

 Forming initial guess at      98.8s


 Loading old vectors from job with title :

SF6 in cc-pvtz basis set

 
      Symmetry analysis of molecular orbitals - initial
      -------------------------------------------------
 
  Numbering of irreducible representations: 
 
     1 a1g         2 a1u         3 a2g         4 a2u         5 eg      
     6 eu          7 t1g         8 t1u         9 t2g        10 t2u     
 
  Orbital symmetries:
 
     1 a1g         2 eg          3 eg          4 t1u         5 t1u     
     6 t1u         7 a1g         8 a1g         9 t1u        10 t1u     
    11 t1u        12 a1g        13 t1u        14 t1u        15 t1u     
    16 eg         17 eg         18 a1g        19 t1u        20 t1u     
    21 t1u        22 t2g        23 t2g        24 t2g        25 eg      
    26 eg         27 t2u        28 t2u        29 t2u        30 t1u     
    31 t1u        32 t1u        33 t1g        34 t1g        35 t1g     
    36 a1g        37 t1u        38 t1u        39 t1u        40 a1g     
    41 t1u        42 t1u        43 t1u        44 t2g        45 t2g     
 

 Starting SCF solution at     102.3s



 ----------------------------------------------
         Quadratically convergent ROHF

 Convergence threshold     :          1.000E-06
 Maximum no. of iterations :           30
 Final Fock-matrix accuracy:          1.000E-08
 ----------------------------------------------


              iter       energy          gnorm     gmax       time
             ----- ------------------- --------- --------- --------
                 1     -994.3006106385  2.15D-05  5.03D-06     32.5
                 2     -994.3006106385  9.59D-08  1.82D-08     34.9


       Final RHF  results 
       ------------------ 

         Total SCF energy =   -994.300610638522
      One-electron energy =  -2504.991499773858
      Two-electron energy =    946.768744275580
 Nuclear repulsion energy =    563.922144859755

        Time for solution =      3.5s


 
       Symmetry analysis of molecular orbitals - final
       -----------------------------------------------
 
  Numbering of irreducible representations: 
 
     1 a1g         2 a1u         3 a2g         4 a2u         5 eg      
     6 eu          7 t1g         8 t1u         9 t2g        10 t2u     
 
  Orbital symmetries:
 
     1 a1g         2 eg          3 eg          4 t1u         5 t1u     
     6 t1u         7 a1g         8 a1g         9 t1u        10 t1u     
    11 t1u        12 a1g        13 t1u        14 t1u        15 t1u     
    16 eg         17 eg         18 a1g        19 t1u        20 t1u     
    21 t1u        22 t2g        23 t2g        24 t2g        25 eg      
    26 eg         27 t2u        28 t2u        29 t2u        30 t1u     
    31 t1u        32 t1u        33 t1g        34 t1g        35 t1g     
    36 a1g        37 t1u        38 t1u        39 t1u        40 a1g     
    41 t1u        42 t1u        43 t1u        44 t2g        45 t2g     
 
             Final eigenvalues
             -----------------

              1      
    1  -92.4571
    2  -26.3805
    3  -26.3805
    4  -26.3804
    5  -26.3804
    6  -26.3804
    7  -26.3804
    8   -9.3889
    9   -7.0774
   10   -7.0774
   11   -7.0774
   12   -1.8305
   13   -1.7048
   14   -1.7048
   15   -1.7048
   16   -1.6518
   17   -1.6518
   18   -1.0932
   19   -0.9163
   20   -0.9163
   21   -0.9163
   22   -0.8250
   23   -0.8250
   24   -0.8250
   25   -0.7309
   26   -0.7309
   27   -0.7248
   28   -0.7248
   29   -0.7248
   30   -0.7122
   31   -0.7122
   32   -0.7122
   33   -0.6759
   34   -0.6759
   35   -0.6759
   36    0.1485
   37    0.3233
   38    0.3233
   39    0.3233
   40    0.3528
   41    0.4066
   42    0.4066
   43    0.4066
   44    0.6047
   45    0.6047
 
                       ROHF Final Molecular Orbital Analysis
                       -------------------------------------
 
 Vector   18  Occ=2.000000D+00  E=-1.093162D+00  Symmetry=a1g
              MO Center= -4.9D-17, -9.1D-17,  4.0D-17, r^2= 2.6D+00
   Bfn.  Coefficient  Atom+Function         Bfn.  Coefficient  Atom+Function  
  ----- ------------  ---------------      ----- ------------  ---------------
     3      0.449514  1 S  s          
 
 Vector   19  Occ=2.000000D+00  E=-9.163116D-01  Symmetry=t1u
              MO Center=  1.0D-17,  6.0D-17,  2.4D-17, r^2= 2.6D+00
   Bfn.  Coefficient  Atom+Function         Bfn.  Coefficient  Atom+Function  
  ----- ------------  ---------------      ----- ------------  ---------------
    10      0.220333  1 S  py                48     -0.183674  2 F  py         
    83     -0.183674  3 F  py                45     -0.161331  2 F  py         
    80     -0.161331  3 F  py         
 
 Vector   20  Occ=2.000000D+00  E=-9.163116D-01  Symmetry=t1u
              MO Center=  0.0D+00, -2.9D-17, -8.7D-17, r^2= 2.6D+00
   Bfn.  Coefficient  Atom+Function         Bfn.  Coefficient  Atom+Function  
  ----- ------------  ---------------      ----- ------------  ---------------
    11      0.228398  1 S  pz               119     -0.190397  4 F  pz         
   154     -0.190397  5 F  pz               116     -0.167237  4 F  pz         
   151     -0.167237  5 F  pz         
 
 Vector   21  Occ=2.000000D+00  E=-9.163116D-01  Symmetry=t1u
              MO Center=  2.1D-16,  2.6D-17, -8.2D-18, r^2= 2.6D+00
   Bfn.  Coefficient  Atom+Function         Bfn.  Coefficient  Atom+Function  
  ----- ------------  ---------------      ----- ------------  ---------------
     9      0.226606  1 S  px               187     -0.188903  6 F  px         
   222     -0.188903  7 F  px               184     -0.165925  6 F  px         
   219     -0.165925  7 F  px         
 
 Vector   22  Occ=2.000000D+00  E=-8.249978D-01  Symmetry=t2g
              MO Center=  1.0D-18, -8.5D-17,  3.0D-17, r^2= 2.7D+00
   Bfn.  Coefficient  Atom+Function         Bfn.  Coefficient  Atom+Function  
  ----- ------------  ---------------      ----- ------------  ---------------
    49      0.220975  2 F  pz                84     -0.220975  3 F  pz         
   118      0.220975  4 F  py               153     -0.220975  5 F  py         
    46      0.176901  2 F  pz                81     -0.176901  3 F  pz         
   115      0.176901  4 F  py               150     -0.176901  5 F  py         
    22      0.153731  1 S  dyz        
 
 Vector   23  Occ=2.000000D+00  E=-8.249978D-01  Symmetry=t2g
              MO Center= -1.4D-16, -1.2D-17,  2.1D-17, r^2= 2.7D+00
   Bfn.  Coefficient  Atom+Function         Bfn.  Coefficient  Atom+Function  
  ----- ------------  ---------------      ----- ------------  ---------------
   117     -0.198211  4 F  px               152      0.198211  5 F  px         
   189     -0.198211  6 F  pz               224      0.198211  7 F  pz         
   114     -0.158677  4 F  px               149      0.158677  5 F  px         
   186     -0.158677  6 F  pz               221      0.158677  7 F  pz         
 
 Vector   24  Occ=2.000000D+00  E=-8.249978D-01  Symmetry=t2g
              MO Center= -5.6D-17,  1.9D-17, -5.9D-18, r^2= 2.7D+00
   Bfn.  Coefficient  Atom+Function         Bfn.  Coefficient  Atom+Function  
  ----- ------------  ---------------      ----- ------------  ---------------
    47      0.198463  2 F  px                82     -0.198463  3 F  px         
   188      0.198463  6 F  py               223     -0.198463  7 F  py         
    44      0.158879  2 F  px                79     -0.158879  3 F  px         
   185      0.158879  6 F  py               220     -0.158879  7 F  py         
 
 Vector   25  Occ=2.000000D+00  E=-7.308638D-01  Symmetry=eg
              MO Center= -4.0D-18,  1.0D-17,  1.2D-16, r^2= 2.9D+00
   Bfn.  Coefficient  Atom+Function         Bfn.  Coefficient  Atom+Function  
  ----- ------------  ---------------      ----- ------------  ---------------
    48      0.240073  2 F  py                83     -0.240073  3 F  py         
   119     -0.221163  4 F  pz               154      0.221163  5 F  pz         
    45      0.187685  2 F  py                80     -0.187685  3 F  py         
   116     -0.172902  4 F  pz               151      0.172902  5 F  pz         
 
 Vector   26  Occ=2.000000D+00  E=-7.308638D-01  Symmetry=eg
              MO Center=  5.6D-17, -2.0D-17, -4.9D-18, r^2= 2.9D+00
   Bfn.  Coefficient  Atom+Function         Bfn.  Coefficient  Atom+Function  
  ----- ------------  ---------------      ----- ------------  ---------------
   187      0.266294  6 F  px               222     -0.266294  7 F  px         
   184      0.208185  6 F  px               219     -0.208185  7 F  px         
   190      0.166304  6 F  px               225     -0.166304  7 F  px         
    24     -0.151606  1 S  dxx        
 
 Vector   27  Occ=2.000000D+00  E=-7.247658D-01  Symmetry=t2u
              MO Center= -5.6D-17,  2.1D-16,  7.9D-19, r^2= 2.8D+00
   Bfn.  Coefficient  Atom+Function         Bfn.  Coefficient  Atom+Function  
  ----- ------------  ---------------      ----- ------------  ---------------
    49     -0.244037  2 F  pz                84     -0.244037  3 F  pz         
   189      0.244037  6 F  pz               224      0.244037  7 F  pz         
    46     -0.194715  2 F  pz                81     -0.194715  3 F  pz         
   186      0.194715  6 F  pz               221      0.194715  7 F  pz         
    52     -0.173099  2 F  pz                87     -0.173099  3 F  pz         
 
 Vector   28  Occ=2.000000D+00  E=-7.247658D-01  Symmetry=t2u
              MO Center=  3.9D-19,  2.1D-16,  4.6D-17, r^2= 2.8D+00
   Bfn.  Coefficient  Atom+Function         Bfn.  Coefficient  Atom+Function  
  ----- ------------  ---------------      ----- ------------  ---------------
    47     -0.244117  2 F  px                82     -0.244117  3 F  px         
   117      0.244117  4 F  px               152      0.244117  5 F  px         
    44     -0.194779  2 F  px                79     -0.194779  3 F  px         
   114      0.194779  4 F  px               149      0.194779  5 F  px         
    50     -0.173156  2 F  px                85     -0.173156  3 F  px         
 
 Vector   29  Occ=2.000000D+00  E=-7.247658D-01  Symmetry=t2u
              MO Center= -1.4D-16, -9.8D-19, -6.9D-17, r^2= 2.8D+00
   Bfn.  Coefficient  Atom+Function         Bfn.  Coefficient  Atom+Function  
  ----- ------------  ---------------      ----- ------------  ---------------
   118      0.244043  4 F  py               153      0.244043  5 F  py         
   188     -0.244043  6 F  py               223     -0.244043  7 F  py         
   115      0.194719  4 F  py               150      0.194719  5 F  py         
   185     -0.194719  6 F  py               220     -0.194719  7 F  py         
   121      0.173103  4 F  py               156      0.173103  5 F  py         
 
 Vector   30  Occ=2.000000D+00  E=-7.122466D-01  Symmetry=t1u
              MO Center=  0.0D+00, -5.5D-17, -5.9D-17, r^2= 2.9D+00
   Bfn.  Coefficient  Atom+Function         Bfn.  Coefficient  Atom+Function  
  ----- ------------  ---------------      ----- ------------  ---------------
   118      0.170512  4 F  py               153      0.170512  5 F  py         
   188      0.170512  6 F  py               223      0.170512  7 F  py         
 
 Vector   31  Occ=2.000000D+00  E=-7.122466D-01  Symmetry=t1u
              MO Center=  4.2D-17, -9.9D-17, -1.7D-16, r^2= 2.9D+00
   Bfn.  Coefficient  Atom+Function         Bfn.  Coefficient  Atom+Function  
  ----- ------------  ---------------      ----- ------------  ---------------
    47      0.193688  2 F  px                82      0.193688  3 F  px         
   117      0.193688  4 F  px               152      0.193688  5 F  px         
    44      0.152572  2 F  px                79      0.152572  3 F  px         
   114      0.152572  4 F  px               149      0.152572  5 F  px         
 
 Vector   32  Occ=2.000000D+00  E=-7.122466D-01  Symmetry=t1u
              MO Center= -5.6D-17, -6.1D-17, -9.5D-18, r^2= 2.9D+00
   Bfn.  Coefficient  Atom+Function         Bfn.  Coefficient  Atom+Function  
  ----- ------------  ---------------      ----- ------------  ---------------
    49      0.176543  2 F  pz                84      0.176543  3 F  pz         
   189      0.176543  6 F  pz               224      0.176543  7 F  pz         
 
 Vector   33  Occ=2.000000D+00  E=-6.759195D-01  Symmetry=t1g
              MO Center= -1.3D-18, -5.0D-17, -3.7D-17, r^2= 2.9D+00
   Bfn.  Coefficient  Atom+Function         Bfn.  Coefficient  Atom+Function  
  ----- ------------  ---------------      ----- ------------  ---------------
    49      0.268031  2 F  pz                84     -0.268031  3 F  pz         
   118     -0.268031  4 F  py               153      0.268031  5 F  py         
    46      0.201034  2 F  pz                81     -0.201034  3 F  pz         
   115     -0.201034  4 F  py               150      0.201034  5 F  py         
    52      0.182627  2 F  pz                87     -0.182627  3 F  pz         
 
 Vector   34  Occ=2.000000D+00  E=-6.759195D-01  Symmetry=t1g
              MO Center= -2.8D-16,  6.8D-17,  5.6D-18, r^2= 2.9D+00
   Bfn.  Coefficient  Atom+Function         Bfn.  Coefficient  Atom+Function  
  ----- ------------  ---------------      ----- ------------  ---------------
    47      0.267908  2 F  px                82     -0.267908  3 F  px         
   188     -0.267908  6 F  py               223      0.267908  7 F  py         
    44      0.200941  2 F  px                79     -0.200941  3 F  px         
   185     -0.200941  6 F  py               220      0.200941  7 F  py         
    50      0.182543  2 F  px                85     -0.182543  3 F  px         
 
 Vector   35  Occ=2.000000D+00  E=-6.759195D-01  Symmetry=t1g
              MO Center= -1.4D-17, -4.1D-18, -1.5D-16, r^2= 2.9D+00
   Bfn.  Coefficient  Atom+Function         Bfn.  Coefficient  Atom+Function  
  ----- ------------  ---------------      ----- ------------  ---------------
   117     -0.267902  4 F  px               152      0.267902  5 F  px         
   189      0.267902  6 F  pz               224     -0.267902  7 F  pz         
   114     -0.200937  4 F  px               149      0.200937  5 F  px         
   186      0.200937  6 F  pz               221     -0.200937  7 F  pz         
   120     -0.182540  4 F  px               155      0.182540  5 F  px         
 
 Vector   36  Occ=0.000000D+00  E= 1.485138D-01  Symmetry=a1g
              MO Center=  2.8D-17,  6.0D-17, -2.3D-17, r^2= 2.4D+00
   Bfn.  Coefficient  Atom+Function         Bfn.  Coefficient  Atom+Function  
  ----- ------------  ---------------      ----- ------------  ---------------
     5      1.349640  1 S  s                  3      0.783723  1 S  s          
    43     -0.524839  2 F  s                 78     -0.524839  3 F  s          
   113     -0.524839  4 F  s                148     -0.524839  5 F  s          
   183     -0.524839  6 F  s                218     -0.524839  7 F  s          
    51      0.367230  2 F  py                86     -0.367230  3 F  py         
 
 Vector   37  Occ=0.000000D+00  E= 3.233048D-01  Symmetry=t1u
              MO Center=  6.1D-16, -5.6D-17,  2.6D-17, r^2= 4.1D+00
   Bfn.  Coefficient  Atom+Function         Bfn.  Coefficient  Atom+Function  
  ----- ------------  ---------------      ----- ------------  ---------------
    15      2.218472  1 S  px               183     -1.562953  6 F  s          
   218      1.562953  7 F  s                  9      0.638332  1 S  px         
   190      0.567125  6 F  px               225      0.567125  7 F  px         
    50     -0.298168  2 F  px                85     -0.298168  3 F  px         
   120     -0.298168  4 F  px               155     -0.298168  5 F  px         
 
 Vector   38  Occ=0.000000D+00  E= 3.233048D-01  Symmetry=t1u
              MO Center= -1.4D-17, -1.1D-17,  1.8D-15, r^2= 4.1D+00
   Bfn.  Coefficient  Atom+Function         Bfn.  Coefficient  Atom+Function  
  ----- ------------  ---------------      ----- ------------  ---------------
    17      2.206964  1 S  pz               113     -1.554846  4 F  s          
   148      1.554846  5 F  s                 11      0.635021  1 S  pz         
   122      0.564183  4 F  pz               157      0.564183  5 F  pz         
    16      0.296484  1 S  py                52     -0.296621  2 F  pz         
    87     -0.296621  3 F  pz               192     -0.296621  6 F  pz         
 
 Vector   39  Occ=0.000000D+00  E= 3.233048D-01  Symmetry=t1u
              MO Center= -3.5D-18, -6.7D-16,  4.0D-17, r^2= 4.1D+00
   Bfn.  Coefficient  Atom+Function         Bfn.  Coefficient  Atom+Function  
  ----- ------------  ---------------      ----- ------------  ---------------
    16      2.206098  1 S  py                43     -1.554235  2 F  s          
    78      1.554235  3 F  s                 10      0.634771  1 S  py         
    51      0.563962  2 F  py                86      0.563962  3 F  py         
   121     -0.296505  4 F  py               156     -0.296505  5 F  py         
   191     -0.296505  6 F  py               226     -0.296505  7 F  py         
 
 Vector   40  Occ=0.000000D+00  E= 3.527762D-01  Symmetry=a1g
              MO Center= -9.7D-17, -5.6D-16, -6.1D-16, r^2= 5.1D+00
   Bfn.  Coefficient  Atom+Function         Bfn.  Coefficient  Atom+Function  
  ----- ------------  ---------------      ----- ------------  ---------------
     5      9.504257  1 S  s                 18     -1.986391  1 S  dxx        
    21     -1.986391  1 S  dyy               23     -1.986391  1 S  dzz        
     4     -1.844503  1 S  s                 43     -1.044039  2 F  s          
    78     -1.044039  3 F  s                113     -1.044039  4 F  s          
   148     -1.044039  5 F  s                183     -1.044039  6 F  s          
 
 Vector   41  Occ=0.000000D+00  E= 4.066035D-01  Symmetry=t1u
              MO Center= -1.4D-17,  9.5D-16,  7.7D-17, r^2= 3.8D+00
   Bfn.  Coefficient  Atom+Function         Bfn.  Coefficient  Atom+Function  
  ----- ------------  ---------------      ----- ------------  ---------------
    10      2.638406  1 S  py                16     -2.494183  1 S  py         
    43      1.378214  2 F  s                 78     -1.378214  3 F  s          
     7      0.979445  1 S  py                36     -0.788818  1 S  fyyy       
    31     -0.590566  1 S  fxxy              38     -0.590566  1 S  fyzz       
    48      0.269181  2 F  py                83      0.269181  3 F  py         
 
 Vector   42  Occ=0.000000D+00  E= 4.066035D-01  Symmetry=t1u
              MO Center= -1.7D-15, -1.2D-16,  3.8D-16, r^2= 3.8D+00
   Bfn.  Coefficient  Atom+Function         Bfn.  Coefficient  Atom+Function  
  ----- ------------  ---------------      ----- ------------  ---------------
     9      2.551955  1 S  px                15     -2.412458  1 S  px         
   183      1.333055  6 F  s                218     -1.333055  7 F  s          
     6      0.947352  1 S  px                30     -0.762972  1 S  fxxx       
    11     -0.676426  1 S  pz                17      0.639450  1 S  pz         
    33     -0.571215  1 S  fxyy              35     -0.571215  1 S  fxzz       
 
 Vector   43  Occ=0.000000D+00  E= 4.066035D-01  Symmetry=t1u
              MO Center= -1.0D-15,  5.8D-17, -3.9D-15, r^2= 3.8D+00
   Bfn.  Coefficient  Atom+Function         Bfn.  Coefficient  Atom+Function  
  ----- ------------  ---------------      ----- ------------  ---------------
    11      2.553792  1 S  pz                17     -2.414194  1 S  pz         
   113      1.334014  4 F  s                148     -1.334014  5 F  s          
     8      0.948034  1 S  pz                39     -0.763521  1 S  fzzz       
     9      0.682981  1 S  px                15     -0.645647  1 S  px         
    32     -0.571627  1 S  fxxz              37     -0.571627  1 S  fyyz       
 
 Vector   44  Occ=0.000000D+00  E= 6.047248D-01  Symmetry=t2g
              MO Center= -5.6D-17, -6.1D-18,  2.7D-17, r^2= 1.7D+00
   Bfn.  Coefficient  Atom+Function         Bfn.  Coefficient  Atom+Function  
  ----- ------------  ---------------      ----- ------------  ---------------
    20      1.729655  1 S  dxz               26      0.548692  1 S  dxz        
    22      0.320847  1 S  dyz              120     -0.217070  4 F  px         
   155      0.217070  5 F  px               192     -0.217070  6 F  pz         
   227      0.217070  7 F  pz         
 
 Vector   45  Occ=0.000000D+00  E= 6.047248D-01  Symmetry=t2g
              MO Center=  3.5D-18, -5.0D-17, -2.7D-17, r^2= 1.7D+00
   Bfn.  Coefficient  Atom+Function         Bfn.  Coefficient  Atom+Function  
  ----- ------------  ---------------      ----- ------------  ---------------
    22      1.729554  1 S  dyz               28      0.548660  1 S  dyz        
    20     -0.320751  1 S  dxz               52     -0.217057  2 F  pz         
    87      0.217057  3 F  pz               121     -0.217057  4 F  py         
   156      0.217057  5 F  py         
 

 center of mass
 --------------
 x =   0.00000000 y =   0.00000000 z =   0.00000000

 moments of inertia (a.u.)
 ------------------
         668.699202091319           0.000000000000           0.000000000000
           0.000000000000         668.699202091319           0.000000000000
           0.000000000000           0.000000000000         668.699202091319
 
  Mulliken analysis of the total density
  --------------------------------------

    Atom       Charge   Shell Charges
 -----------   ------   -------------------------------------------------------
    1 S   16    14.60   2.00  1.89  0.83  0.21  0.01  5.90  0.95  0.73  0.13  0.62  0.56  0.77
    2 F    9     9.23   1.94  1.07  0.27  0.60  1.53  2.51  1.26  0.01  0.04  0.00
    3 F    9     9.23   1.94  1.07  0.27  0.60  1.53  2.51  1.26  0.01  0.04  0.00
    4 F    9     9.23   1.94  1.07  0.27  0.60  1.53  2.51  1.26  0.01  0.04  0.00
    5 F    9     9.23   1.94  1.07  0.27  0.60  1.53  2.51  1.26  0.01  0.04  0.00
    6 F    9     9.23   1.94  1.07  0.27  0.60  1.53  2.51  1.26  0.01  0.04  0.00
    7 F    9     9.23   1.94  1.07  0.27  0.60  1.53  2.51  1.26  0.01  0.04  0.00
 
       Multipole analysis of the density wrt the origin
       ------------------------------------------------
 
     L   x y z        total         open         nuclear
     -   - - -        -----         ----         -------
     0   0 0 0      0.000000      0.000000     70.000000
 
     1   1 0 0      0.000000      0.000000      0.000000
     1   0 1 0      0.000000      0.000000      0.000000
     1   0 0 1      0.000000      0.000000      0.000000
 
     2   2 0 0    -31.793588      0.000000    158.389465
     2   1 1 0      0.000000      0.000000      0.000000
     2   1 0 1      0.000000      0.000000      0.000000
     2   0 2 0    -31.793588      0.000000    158.389465
     2   0 1 1      0.000000      0.000000      0.000000
     2   0 0 2    -31.793588      0.000000    158.389465
 
                   NWChem MP2 Semi-direct Energy/Gradient Module
                   ---------------------------------------------
 
 
                             SF6 in cc-pvtz basis set
 
 
  Basis functions       =    249
  Molecular orbitals    =    249
  Frozen core           =      0
  Frozen virtuals       =      0
  Active alpha occupied =     35
  Active beta occupied  =     35
  Active alpha virtual  =    214
  Active beta virtual   =    214
  Use MO symmetry       = F
  Use skeleton AO sym   = T

  AO/Fock/Back tols     =   1.0D-09  1.0D-09  1.0D-09

 GA uses MA = F    GA memory limited = T

 Available: 
  local mem=  1.18D+08
 global mem=  1.18D+08
 local disk=  1.31D+07
   1 passes of  35:        4237963                     765955                   4268626.
 
 Semi-direct pass number   1 of   1  for RHF alpha+beta  at      117.7s
Node 0 wrote     33.2 Mb in      0.0 s     Agg I/O rate:943828.2 Mb/s
 Done moints_semi at      134.7s
 Done maket at      141.8s
 Done multipass loop at      141.9s


          -------------------------------------------
          SCF energy                -994.300610638522
          Correlation energy          -1.882991424680
          Singlet pairs               -1.130264696708
          Triplet pairs               -0.752726727972
          Total MP2 energy          -996.183602063202
          -------------------------------------------

 -----------------------
 Performance information
 -----------------------

 Timer overhead =  3.00D-07 seconds/call

               Nr. of calls         CPU time (s)                 Wall time (s)                GFlops
             ---------------    -------------------     ------------------------------   -------------------
Name         Min   Avg   Max    Min     Avg     Max     Min     Avg     Max   Mx/calls   Min     Max     Sum
mp2: moin     1     1     1    3.3     5.3     7.4      17.     17.     17.     17.      0.0     0.0     0.0   
mp2: make     1     1     1    1.0     1.3     1.6      7.1     7.1     7.1     7.1      0.0     0.0     0.0   
mp2: tota     1     1     1    5.2     7.3     9.7      25.     25.     25.     25.      0.0     0.0     0.0   

 The average no. of pstat calls per process was 3.00D+00
 with a timing overhead of 9.00D-07s

 Line search: 
     step= 1.00 grad=-8.1D-11 hess= 5.2D-09 energy=   -996.183602 mode=accept  
 new step= 1.00                   predicted energy=   -996.183602

          --------
          Step   1
          --------
 
 
                         Geometry "geometry" -> "geometry"
                         ---------------------------------
 
 Output coordinates in a.u. (scale by  1.000000000 to convert to a.u.)
 
  No.       Tag          Charge          X              Y              Z
 ---- ---------------- ---------- -------------- -------------- --------------
    1 S                   16.0000     0.00000000     0.00000000     0.00000000
    2 F                    9.0000     0.00000000     2.96638074     0.00000000
    3 F                    9.0000     0.00000000    -2.96638074     0.00000000
    4 F                    9.0000     0.00000000     0.00000000     2.96638074
    5 F                    9.0000     0.00000000     0.00000000    -2.96638074
    6 F                    9.0000     2.96638074     0.00000000     0.00000000
    7 F                    9.0000    -2.96638074     0.00000000     0.00000000
 
      Atomic Mass 
      ----------- 
 
[...]
          20    -0.01042     0.00000    -0.00002
          21     0.00000    -0.01042     0.00000



 ----------------------------------------------------------------------------
 Normal Eigenvalue ||         Derivative Dipole Moments (debye/angs)
  Mode   [cm**-1]  ||      [d/dqX]             [d/dqY]           [d/dqZ]
 ------ ---------- || ------------------ ------------------ -----------------
    1        2.869 ||       0.000               0.000             0.000
    2        2.869 ||       0.000               0.000             0.000
    3        2.869 ||       0.000               0.000             0.000
    4        3.268 ||       0.000               0.000             0.000
    5        3.268 ||       0.000               0.000             0.000
    6        3.268 ||       0.000               0.000             0.000
    7      347.654 ||       0.000               0.000             0.000
    8      347.654 ||       0.000               0.000             0.000
    9      347.654 ||       0.000               0.000             0.000
   10      520.785 ||       0.000               0.000             0.000
   11      520.785 ||       0.000               0.000             0.000
   12      520.785 ||       0.000               0.000             0.000
   13      612.861 ||      -0.021              -0.852            -0.012
   14      612.861 ||       0.021              -0.013             0.852
   15      612.861 ||       0.852              -0.021            -0.021
   16      656.716 ||       0.000               0.000             0.000
   17      656.716 ||       0.000               0.000             0.000
   18      780.332 ||       0.000               0.000             0.000
   19      955.865 ||       0.005               3.079             0.001
   20      955.865 ||       0.001              -0.001             3.079
   21      955.865 ||      -3.079               0.005             0.001
 ----------------------------------------------------------------------------



  
  
 ----------------------------------------------------------------------------
 Normal Eigenvalue ||                 Infra Red Intensities
  Mode   [cm**-1]  || [atomic units] [(debye/angs)**2] [(KM/mol)] [arbitrary]
 ------ ---------- || -------------- ----------------- ---------- -----------
    1        2.869 ||    0.000000           0.000         0.000       0.000
    2        2.869 ||    0.000000           0.000         0.000       0.000
    3        2.869 ||    0.000000           0.000         0.000       0.000
    4        3.268 ||    0.000000           0.000         0.000       0.000
    5        3.268 ||    0.000000           0.000         0.000       0.000
    6        3.268 ||    0.000000           0.000         0.000       0.000
    7      347.654 ||    0.000000           0.000         0.000       0.000
    8      347.654 ||    0.000000           0.000         0.000       0.000
    9      347.654 ||    0.000000           0.000         0.000       0.000
   10      520.785 ||    0.000000           0.000         0.000       0.000
   11      520.785 ||    0.000000           0.000         0.000       0.000
   12      520.785 ||    0.000000           0.000         0.000       0.000
   13      612.861 ||    0.031475           0.726        30.683       4.980
   14      612.861 ||    0.031475           0.726        30.683       4.980
   15      612.861 ||    0.031475           0.726        30.683       4.980
   16      656.716 ||    0.000000           0.000         0.000       0.000
   17      656.716 ||    0.000000           0.000         0.000       0.000
   18      780.332 ||    0.000000           0.000         0.000       0.000
   19      955.865 ||    0.410964           9.481       400.628      65.020
   20      955.865 ||    0.410964           9.481       400.628      65.020
   21      955.865 ||    0.410964           9.481       400.628      65.020
 ----------------------------------------------------------------------------



 
 
        Vibrational analysis via the FX method 
  --- with translations and rotations projected out ---
  --- via the Eckart algorithm                      ---
 Projected Nuclear Hessian trans-rot subspace norm:1.4517D-33
                         (should be close to zero!) 


From the projected analysis 
The Zero-Point Energy (Kcal/mol) =          13.44953929

 center of mass
 --------------
 x =   0.00000000 y =   0.00000000 z =   0.00000000

 moments of inertia (a.u.)
 ------------------
         668.699202091319           0.000000000000           0.000000000000
           0.000000000000         668.699202091319           0.000000000000
           0.000000000000           0.000000000000         668.699202091319

 Rotational Constants
 --------------------
 A=   0.090026 cm-1  (  0.129524 K)
 B=   0.090026 cm-1  (  0.129524 K)
 C=   0.090026 cm-1  (  0.129524 K)


 Temperature                      =   298.15K
 frequency scaling parameter      =   1.0000

 Zero-Point correction to Energy  =   13.439 kcal/mol  (  0.021417 au)
 Thermal correction to Energy     =   16.882 kcal/mol  (  0.026903 au)
 Thermal correction to Enthalpy   =   17.474 kcal/mol  (  0.027847 au)

 Total Entropy                    =   69.615 cal/mol-K
   - Translational                =   40.827 cal/mol-K (mol. weight = 145.9625)
   - Rotational                   =   20.869 cal/mol-K (symmetry #  =       24)
   - Vibrational                  =    7.918 cal/mol-K

 Cv (constant volume heat capacity) =   21.115 cal/mol-K
   - Translational                  =    2.979 cal/mol-K
   - Rotational                     =    2.979 cal/mol-K
   - Vibrational                    =   15.156 cal/mol-K



          -------------------------------------------------
          NORMAL MODE EIGENVECTORS IN CARTESIAN COORDINATES
          -------------------------------------------------
             (Projected Frequencies expressed in cm-1)

                    1           2           3           4           5           6
 
 P.Frequency        0.00        0.00        0.00        0.00        0.00        0.00
 
           1     0.00082    -0.00206     0.00053     0.05485    -0.06114     0.00231
           2    -0.01710     0.05760     0.00181     0.00340    -0.00122    -0.05596
           3     0.07756    -0.00282     0.00032    -0.00330    -0.00283    -0.02673
           4     0.00074    -0.00029    -0.11415     0.05543    -0.06173     0.00050
           5    -0.01710     0.05760     0.00181     0.00340    -0.00122    -0.05596
           6     0.04874    -0.08449     0.00027    -0.00223    -0.00234    -0.10194
           7     0.00090    -0.00383     0.11521     0.05428    -0.06054     0.00412
           8    -0.01710     0.05760     0.00181     0.00340    -0.00122    -0.05596
           9     0.10638     0.07886     0.00037    -0.00436    -0.00331     0.04848
          10    -0.00568    -0.00097     0.00052    -0.03032    -0.13769     0.00192
          11     0.01172     0.13927     0.00186     0.00233    -0.00170     0.01926
          12     0.07756    -0.00282     0.00032    -0.00330    -0.00283    -0.02673
          13     0.00732    -0.00315     0.00053     0.14003     0.01542     0.00270
          14    -0.04592    -0.02407     0.00175     0.00446    -0.00074    -0.13117
          15     0.07756    -0.00282     0.00032    -0.00330    -0.00283    -0.02673
          16     0.00082    -0.00206     0.00053     0.05485    -0.06114     0.00231
          17    -0.01702     0.05583     0.11649     0.00282    -0.00062    -0.05415
          18     0.08407    -0.00391     0.00032     0.08188     0.07373    -0.02634
          19     0.00082    -0.00206     0.00053     0.05485    -0.06114     0.00231
          20    -0.01718     0.05937    -0.11288     0.00397    -0.00182    -0.05776
          21     0.07106    -0.00173     0.00032    -0.08847    -0.07939    -0.02712

                    7           8           9          10          11          12
 
 P.Frequency      347.65      347.65      347.65      520.78      520.78      520.78
 
           1     0.00000     0.00000     0.00000     0.00000     0.00000     0.00000
           2     0.00000     0.00000     0.00000     0.00000     0.00000     0.00000
           3     0.00000     0.00000     0.00000     0.00000     0.00000     0.00000
           4    -0.11434     0.00533     0.00756    -0.11470     0.00144    -0.00138
           5     0.00000     0.00000     0.00000     0.00000     0.00000     0.00000
           6    -0.00503    -0.11451     0.00465     0.00143     0.11470     0.00082
           7    -0.11434     0.00533     0.00756     0.11470    -0.00144     0.00138
           8     0.00000     0.00000     0.00000     0.00000     0.00000     0.00000
           9    -0.00503    -0.11451     0.00465    -0.00143    -0.11470    -0.00082
          10     0.11434    -0.00533    -0.00756    -0.00139    -0.00081     0.11470
          11     0.00776     0.00431     0.11437     0.00143     0.11470     0.00082
          12     0.00000     0.00000     0.00000     0.00000     0.00000     0.00000
          13     0.11434    -0.00533    -0.00756     0.00139     0.00081    -0.11470
          14     0.00776     0.00431     0.11437    -0.00143    -0.11470    -0.00082
          15     0.00000     0.00000     0.00000     0.00000     0.00000     0.00000
          16     0.00000     0.00000     0.00000     0.00000     0.00000     0.00000
          17    -0.00776    -0.00431    -0.11437    -0.11470     0.00144    -0.00138
          18     0.00503     0.11451    -0.00465    -0.00139    -0.00081     0.11470
          19     0.00000     0.00000     0.00000     0.00000     0.00000     0.00000
          20    -0.00776    -0.00431    -0.11437     0.11470    -0.00144     0.00138
          21     0.00503     0.11451    -0.00465     0.00139     0.00081    -0.11470

                   13          14          15          16          17          18
 
 P.Frequency      612.86      612.86      612.86      656.72      656.72      780.33
 
           1    -0.00165     0.00163    -0.06746     0.00000     0.00000     0.00000
           2    -0.06748    -0.00100     0.00163     0.00000     0.00000     0.00000
           3    -0.00096     0.06748     0.00165     0.00000     0.00000     0.00000
           4     0.00194    -0.00191     0.07928     0.00000     0.00000     0.00000
           5    -0.09822    -0.00146     0.00237    -0.08934     0.09779     0.09366
           6     0.00113    -0.07930    -0.00194     0.00000     0.00000     0.00000
           7     0.00194    -0.00191     0.07928     0.00000     0.00000     0.00000
           8    -0.09822    -0.00146     0.00237     0.08934    -0.09779    -0.09366
           9     0.00113    -0.07930    -0.00194     0.00000     0.00000     0.00000
          10     0.00194    -0.00191     0.07928     0.00000     0.00000     0.00000
          11     0.07930     0.00118    -0.00192     0.00000     0.00000     0.00000
          12    -0.00140     0.09822     0.00241    -0.04002    -0.12627     0.09366
          13     0.00194    -0.00191     0.07928     0.00000     0.00000     0.00000
          14     0.07930     0.00118    -0.00192     0.00000     0.00000     0.00000
          15    -0.00140     0.09822     0.00241     0.04002     0.12627    -0.09366
          16    -0.00241     0.00237    -0.09820     0.12936     0.02848     0.09366
          17     0.07930     0.00118    -0.00192     0.00000     0.00000     0.00000
          18     0.00113    -0.07930    -0.00194     0.00000     0.00000     0.00000
          19    -0.00241     0.00237    -0.09820    -0.12936    -0.02848    -0.09366
          20     0.07930     0.00118    -0.00192     0.00000     0.00000     0.00000
          21     0.00113    -0.07930    -0.00194     0.00000     0.00000     0.00000

                   19          20          21
 
 P.Frequency      955.87      955.87      955.87
 
           1     0.00021    -0.13453     0.00003
           2     0.13453     0.00021    -0.00005
           3     0.00005     0.00003     0.13453
           4    -0.00002     0.01042     0.00000
           5    -0.09953    -0.00015     0.00003
           6     0.00000     0.00000    -0.01042
           7    -0.00002     0.01042     0.00000
           8    -0.09953    -0.00015     0.00003
           9     0.00000     0.00000    -0.01042
          10    -0.00002     0.01042     0.00000
          11    -0.01042    -0.00002     0.00000
          12    -0.00003    -0.00002    -0.09953
          13    -0.00002     0.01042     0.00000
          14    -0.01042    -0.00002     0.00000
          15    -0.00003    -0.00002    -0.09953
          16    -0.00015     0.09953    -0.00002
          17    -0.01042    -0.00002     0.00000
          18     0.00000     0.00000    -0.01042
          19    -0.00015     0.09953    -0.00002
          20    -0.01042    -0.00002     0.00000
          21     0.00000     0.00000    -0.01042



 ----------------------------------------------------------------------------
 Normal Eigenvalue ||    Projected Derivative Dipole Moments (debye/angs)
  Mode   [cm**-1]  ||      [d/dqX]             [d/dqY]           [d/dqZ]
 ------ ---------- || ------------------ ------------------ -----------------
    1        0.000 ||       0.000               0.000             0.000
    2        0.000 ||       0.000               0.000             0.000
    3        0.000 ||       0.000               0.000             0.000
    4        0.000 ||       0.000               0.000             0.000
    5        0.000 ||       0.000               0.000             0.000
    6        0.000 ||       0.000               0.000             0.000
    7      347.654 ||       0.000               0.000             0.000
    8      347.654 ||       0.000               0.000             0.000
    9      347.654 ||       0.000               0.000             0.000
   10      520.785 ||       0.000               0.000             0.000
   11      520.785 ||       0.000               0.000             0.000
   12      520.785 ||       0.000               0.000             0.000
   13      612.863 ||      -0.021              -0.852            -0.012
   14      612.863 ||       0.021              -0.013             0.852
   15      612.863 ||       0.852              -0.021            -0.021
   16      656.716 ||       0.000               0.000             0.000
   17      656.716 ||       0.000               0.000             0.000
   18      780.332 ||       0.000               0.000             0.000
   19      955.867 ||       0.005               3.079             0.001
   20      955.867 ||      -3.079               0.005             0.001
   21      955.867 ||       0.001              -0.001             3.079
 ----------------------------------------------------------------------------



  
  
 ----------------------------------------------------------------------------
 Normal Eigenvalue ||           Projected Infra Red Intensities
  Mode   [cm**-1]  || [atomic units] [(debye/angs)**2] [(KM/mol)] [arbitrary]
 ------ ---------- || -------------- ----------------- ---------- -----------
    1        0.000 ||    0.000000           0.000         0.000       0.000
    2        0.000 ||    0.000000           0.000         0.000       0.000
    3        0.000 ||    0.000000           0.000         0.000       0.000
    4        0.000 ||    0.000000           0.000         0.000       0.000
    5        0.000 ||    0.000000           0.000         0.000       0.000
    6        0.000 ||    0.000000           0.000         0.000       0.000
    7      347.654 ||    0.000000           0.000         0.000       0.000
    8      347.654 ||    0.000000           0.000         0.000       0.000
    9      347.654 ||    0.000000           0.000         0.000       0.000
   10      520.785 ||    0.000000           0.000         0.000       0.000
   11      520.785 ||    0.000000           0.000         0.000       0.000
   12      520.785 ||    0.000000           0.000         0.000       0.000
   13      612.863 ||    0.031473           0.726        30.682       4.980
   14      612.863 ||    0.031473           0.726        30.682       4.980
   15      612.863 ||    0.031473           0.726        30.682       4.980
   16      656.716 ||    0.000000           0.000         0.000       0.000
   17      656.716 ||    0.000000           0.000         0.000       0.000
   18      780.332 ||    0.000000           0.000         0.000       0.000
   19      955.867 ||    0.410965           9.481       400.629      65.020
   20      955.867 ||    0.410965           9.481       400.629      65.020
   21      955.867 ||    0.410965           9.481       400.629      65.020
 ----------------------------------------------------------------------------



 vib:animation  F

 Task  times  cpu:        0.0s     wall:        0.0s
 
 
                                NWChem Input Module
                                -------------------
 
 
 Summary of allocated global arrays
-----------------------------------
  No active global arrays



                         GA Statistics for process    0
                         ------------------------------

       create   destroy   get      put      acc     scatter   gather  read&inc
calls: 7291     7291     1.17e+06 5.78e+05 1.01e+06    0        0        0     
number of processes/call 1.43e+00 3.69e+00 1.09e+00 0.00e+00 0.00e+00
bytes total:             2.37e+09 1.26e+09 9.86e+08 0.00e+00 0.00e+00 0.00e+00
bytes remote:            1.66e+09 1.09e+09 8.10e+08 0.00e+00 0.00e+00 0.00e+00
Max memory consumed for GA by this process: 7216928 bytes
 
MA_summarize_allocated_blocks: starting scan ...
MA_summarize_allocated_blocks: scan completed: 0 heap blocks, 0 stack blocks
MA usage statistics:

	allocation statistics:
					      heap	     stack
					      ----	     -----
	current number of blocks	         0	         0
	maximum number of blocks	        25	        39
	current total bytes		         0	         0
	maximum total bytes		    291664	  56137744
	maximum total K-bytes		       292	     56138
	maximum total M-bytes		         1	        57
 
 
                                     CITATION
                                     --------
                Please cite the following reference when publishing
                           results obtained with NWChem:
 
                 M. Valiev, E.J. Bylaska, N. Govind, K. Kowalski,
              T.P. Straatsma, H.J.J. van Dam, D. Wang, J. Nieplocha,
                        E. Apra, T.L. Windus, W.A. de Jong
                 "NWChem: a comprehensive and scalable open-source
                  solution for large scale molecular simulations"
                      Comput. Phys. Commun. 181, 1477 (2010)
                           doi:10.1016/j.cpc.2010.04.018
 
                              AUTHORS & CONTRIBUTORS
                              ----------------------
      E. J. Bylaska, W. A. de Jong, N. Govind, K. Kowalski, T. P. Straatsma,
     M. Valiev, H. J. J. van Dam, D. Wang, E. Apra, T. L. Windus, J. Hammond,
    J. Autschbach, F. Aquino, J. Mullin, P. Nichols, S. Hirata, M. T. Hackler,
   Y. Zhao, P.-D. Fan, R. J. Harrison, M. Dupuis, D. M. A. Smith, K. Glaesemann,
    J. Nieplocha, V. Tipparaju, M. Krishnan, A. Vazquez-Mayagoitia, L. Jensen,
      M. Swart, Q. Wu, T. Van Voorhis, A. A. Auer, M. Nooijen, L. D. Crosby,
        E. Brown, G. Cisneros, G. I. Fann, H. Fruchtl, J. Garza, K. Hirao,
        R. Kendall, J. A. Nichols, K. Tsemekhman, K. Wolinski, J. Anchell,
       D. Bernholdt, P. Borowski, T. Clark, D. Clerc, H. Dachsel, M. Deegan,
        K. Dyall, D. Elwood, E. Glendening, M. Gutowski, A. Hess, J. Jaffe,
        B. Johnson, J. Ju, R. Kobayashi, R. Kutteh, Z. Lin, R. Littlefield,
    X. Long, B. Meng, T. Nakajima, S. Niu, L. Pollack, M. Rosing, G. Sandrone,
       M. Stave, H. Taylor, G. Thomas, J. H. van Lenthe, A. Wong, Z. Zhang.

 Total times  cpu:      516.3s     wall:     1471.4s
